# vtk DataFile Version 2.0
cfd2d
ASCII
DATASET STRUCTURED_GRID
DIMENSIONS 	100		50		1
POINTS 	5000	double
0.0005 0.0005 0 
0.0005 0.0015 0 
0.0005 0.0025 0 
0.0005 0.0035 0 
0.0005 0.0045 0 
0.0005 0.0055 0 
0.0005 0.0065 0 
0.0005 0.0075 0 
0.0005 0.0085 0 
0.0005 0.0095 0 
0.0005 0.0105 0 
0.0005 0.0115 0 
0.0005 0.0125 0 
0.0005 0.0135 0 
0.0005 0.0145 0 
0.0005 0.0155 0 
0.0005 0.0165 0 
0.0005 0.0175 0 
0.0005 0.0185 0 
0.0005 0.0195 0 
0.0005 0.0205 0 
0.0005 0.0215 0 
0.0005 0.0225 0 
0.0005 0.0235 0 
0.0005 0.0245 0 
0.0005 0.0255 0 
0.0005 0.0265 0 
0.0005 0.0275 0 
0.0005 0.0285 0 
0.0005 0.0295 0 
0.0005 0.0305 0 
0.0005 0.0315 0 
0.0005 0.0325 0 
0.0005 0.0335 0 
0.0005 0.0345 0 
0.0005 0.0355 0 
0.0005 0.0365 0 
0.0005 0.0375 0 
0.0005 0.0385 0 
0.0005 0.0395 0 
0.0005 0.0405 0 
0.0005 0.0415 0 
0.0005 0.0425 0 
0.0005 0.0435 0 
0.0005 0.0445 0 
0.0005 0.0455 0 
0.0005 0.0465 0 
0.0005 0.0475 0 
0.0005 0.0485 0 
0.0005 0.0495 0 
0.0015 0.0005 0 
0.0015 0.0015 0 
0.0015 0.0025 0 
0.0015 0.0035 0 
0.0015 0.0045 0 
0.0015 0.0055 0 
0.0015 0.0065 0 
0.0015 0.0075 0 
0.0015 0.0085 0 
0.0015 0.0095 0 
0.0015 0.0105 0 
0.0015 0.0115 0 
0.0015 0.0125 0 
0.0015 0.0135 0 
0.0015 0.0145 0 
0.0015 0.0155 0 
0.0015 0.0165 0 
0.0015 0.0175 0 
0.0015 0.0185 0 
0.0015 0.0195 0 
0.0015 0.0205 0 
0.0015 0.0215 0 
0.0015 0.0225 0 
0.0015 0.0235 0 
0.0015 0.0245 0 
0.0015 0.0255 0 
0.0015 0.0265 0 
0.0015 0.0275 0 
0.0015 0.0285 0 
0.0015 0.0295 0 
0.0015 0.0305 0 
0.0015 0.0315 0 
0.0015 0.0325 0 
0.0015 0.0335 0 
0.0015 0.0345 0 
0.0015 0.0355 0 
0.0015 0.0365 0 
0.0015 0.0375 0 
0.0015 0.0385 0 
0.0015 0.0395 0 
0.0015 0.0405 0 
0.0015 0.0415 0 
0.0015 0.0425 0 
0.0015 0.0435 0 
0.0015 0.0445 0 
0.0015 0.0455 0 
0.0015 0.0465 0 
0.0015 0.0475 0 
0.0015 0.0485 0 
0.0015 0.0495 0 
0.0025 0.0005 0 
0.0025 0.0015 0 
0.0025 0.0025 0 
0.0025 0.0035 0 
0.0025 0.0045 0 
0.0025 0.0055 0 
0.0025 0.0065 0 
0.0025 0.0075 0 
0.0025 0.0085 0 
0.0025 0.0095 0 
0.0025 0.0105 0 
0.0025 0.0115 0 
0.0025 0.0125 0 
0.0025 0.0135 0 
0.0025 0.0145 0 
0.0025 0.0155 0 
0.0025 0.0165 0 
0.0025 0.0175 0 
0.0025 0.0185 0 
0.0025 0.0195 0 
0.0025 0.0205 0 
0.0025 0.0215 0 
0.0025 0.0225 0 
0.0025 0.0235 0 
0.0025 0.0245 0 
0.0025 0.0255 0 
0.0025 0.0265 0 
0.0025 0.0275 0 
0.0025 0.0285 0 
0.0025 0.0295 0 
0.0025 0.0305 0 
0.0025 0.0315 0 
0.0025 0.0325 0 
0.0025 0.0335 0 
0.0025 0.0345 0 
0.0025 0.0355 0 
0.0025 0.0365 0 
0.0025 0.0375 0 
0.0025 0.0385 0 
0.0025 0.0395 0 
0.0025 0.0405 0 
0.0025 0.0415 0 
0.0025 0.0425 0 
0.0025 0.0435 0 
0.0025 0.0445 0 
0.0025 0.0455 0 
0.0025 0.0465 0 
0.0025 0.0475 0 
0.0025 0.0485 0 
0.0025 0.0495 0 
0.0035 0.0005 0 
0.0035 0.0015 0 
0.0035 0.0025 0 
0.0035 0.0035 0 
0.0035 0.0045 0 
0.0035 0.0055 0 
0.0035 0.0065 0 
0.0035 0.0075 0 
0.0035 0.0085 0 
0.0035 0.0095 0 
0.0035 0.0105 0 
0.0035 0.0115 0 
0.0035 0.0125 0 
0.0035 0.0135 0 
0.0035 0.0145 0 
0.0035 0.0155 0 
0.0035 0.0165 0 
0.0035 0.0175 0 
0.0035 0.0185 0 
0.0035 0.0195 0 
0.0035 0.0205 0 
0.0035 0.0215 0 
0.0035 0.0225 0 
0.0035 0.0235 0 
0.0035 0.0245 0 
0.0035 0.0255 0 
0.0035 0.0265 0 
0.0035 0.0275 0 
0.0035 0.0285 0 
0.0035 0.0295 0 
0.0035 0.0305 0 
0.0035 0.0315 0 
0.0035 0.0325 0 
0.0035 0.0335 0 
0.0035 0.0345 0 
0.0035 0.0355 0 
0.0035 0.0365 0 
0.0035 0.0375 0 
0.0035 0.0385 0 
0.0035 0.0395 0 
0.0035 0.0405 0 
0.0035 0.0415 0 
0.0035 0.0425 0 
0.0035 0.0435 0 
0.0035 0.0445 0 
0.0035 0.0455 0 
0.0035 0.0465 0 
0.0035 0.0475 0 
0.0035 0.0485 0 
0.0035 0.0495 0 
0.0045 0.0005 0 
0.0045 0.0015 0 
0.0045 0.0025 0 
0.0045 0.0035 0 
0.0045 0.0045 0 
0.0045 0.0055 0 
0.0045 0.0065 0 
0.0045 0.0075 0 
0.0045 0.0085 0 
0.0045 0.0095 0 
0.0045 0.0105 0 
0.0045 0.0115 0 
0.0045 0.0125 0 
0.0045 0.0135 0 
0.0045 0.0145 0 
0.0045 0.0155 0 
0.0045 0.0165 0 
0.0045 0.0175 0 
0.0045 0.0185 0 
0.0045 0.0195 0 
0.0045 0.0205 0 
0.0045 0.0215 0 
0.0045 0.0225 0 
0.0045 0.0235 0 
0.0045 0.0245 0 
0.0045 0.0255 0 
0.0045 0.0265 0 
0.0045 0.0275 0 
0.0045 0.0285 0 
0.0045 0.0295 0 
0.0045 0.0305 0 
0.0045 0.0315 0 
0.0045 0.0325 0 
0.0045 0.0335 0 
0.0045 0.0345 0 
0.0045 0.0355 0 
0.0045 0.0365 0 
0.0045 0.0375 0 
0.0045 0.0385 0 
0.0045 0.0395 0 
0.0045 0.0405 0 
0.0045 0.0415 0 
0.0045 0.0425 0 
0.0045 0.0435 0 
0.0045 0.0445 0 
0.0045 0.0455 0 
0.0045 0.0465 0 
0.0045 0.0475 0 
0.0045 0.0485 0 
0.0045 0.0495 0 
0.0055 0.0005 0 
0.0055 0.0015 0 
0.0055 0.0025 0 
0.0055 0.0035 0 
0.0055 0.0045 0 
0.0055 0.0055 0 
0.0055 0.0065 0 
0.0055 0.0075 0 
0.0055 0.0085 0 
0.0055 0.0095 0 
0.0055 0.0105 0 
0.0055 0.0115 0 
0.0055 0.0125 0 
0.0055 0.0135 0 
0.0055 0.0145 0 
0.0055 0.0155 0 
0.0055 0.0165 0 
0.0055 0.0175 0 
0.0055 0.0185 0 
0.0055 0.0195 0 
0.0055 0.0205 0 
0.0055 0.0215 0 
0.0055 0.0225 0 
0.0055 0.0235 0 
0.0055 0.0245 0 
0.0055 0.0255 0 
0.0055 0.0265 0 
0.0055 0.0275 0 
0.0055 0.0285 0 
0.0055 0.0295 0 
0.0055 0.0305 0 
0.0055 0.0315 0 
0.0055 0.0325 0 
0.0055 0.0335 0 
0.0055 0.0345 0 
0.0055 0.0355 0 
0.0055 0.0365 0 
0.0055 0.0375 0 
0.0055 0.0385 0 
0.0055 0.0395 0 
0.0055 0.0405 0 
0.0055 0.0415 0 
0.0055 0.0425 0 
0.0055 0.0435 0 
0.0055 0.0445 0 
0.0055 0.0455 0 
0.0055 0.0465 0 
0.0055 0.0475 0 
0.0055 0.0485 0 
0.0055 0.0495 0 
0.0065 0.0005 0 
0.0065 0.0015 0 
0.0065 0.0025 0 
0.0065 0.0035 0 
0.0065 0.0045 0 
0.0065 0.0055 0 
0.0065 0.0065 0 
0.0065 0.0075 0 
0.0065 0.0085 0 
0.0065 0.0095 0 
0.0065 0.0105 0 
0.0065 0.0115 0 
0.0065 0.0125 0 
0.0065 0.0135 0 
0.0065 0.0145 0 
0.0065 0.0155 0 
0.0065 0.0165 0 
0.0065 0.0175 0 
0.0065 0.0185 0 
0.0065 0.0195 0 
0.0065 0.0205 0 
0.0065 0.0215 0 
0.0065 0.0225 0 
0.0065 0.0235 0 
0.0065 0.0245 0 
0.0065 0.0255 0 
0.0065 0.0265 0 
0.0065 0.0275 0 
0.0065 0.0285 0 
0.0065 0.0295 0 
0.0065 0.0305 0 
0.0065 0.0315 0 
0.0065 0.0325 0 
0.0065 0.0335 0 
0.0065 0.0345 0 
0.0065 0.0355 0 
0.0065 0.0365 0 
0.0065 0.0375 0 
0.0065 0.0385 0 
0.0065 0.0395 0 
0.0065 0.0405 0 
0.0065 0.0415 0 
0.0065 0.0425 0 
0.0065 0.0435 0 
0.0065 0.0445 0 
0.0065 0.0455 0 
0.0065 0.0465 0 
0.0065 0.0475 0 
0.0065 0.0485 0 
0.0065 0.0495 0 
0.0075 0.0005 0 
0.0075 0.0015 0 
0.0075 0.0025 0 
0.0075 0.0035 0 
0.0075 0.0045 0 
0.0075 0.0055 0 
0.0075 0.0065 0 
0.0075 0.0075 0 
0.0075 0.0085 0 
0.0075 0.0095 0 
0.0075 0.0105 0 
0.0075 0.0115 0 
0.0075 0.0125 0 
0.0075 0.0135 0 
0.0075 0.0145 0 
0.0075 0.0155 0 
0.0075 0.0165 0 
0.0075 0.0175 0 
0.0075 0.0185 0 
0.0075 0.0195 0 
0.0075 0.0205 0 
0.0075 0.0215 0 
0.0075 0.0225 0 
0.0075 0.0235 0 
0.0075 0.0245 0 
0.0075 0.0255 0 
0.0075 0.0265 0 
0.0075 0.0275 0 
0.0075 0.0285 0 
0.0075 0.0295 0 
0.0075 0.0305 0 
0.0075 0.0315 0 
0.0075 0.0325 0 
0.0075 0.0335 0 
0.0075 0.0345 0 
0.0075 0.0355 0 
0.0075 0.0365 0 
0.0075 0.0375 0 
0.0075 0.0385 0 
0.0075 0.0395 0 
0.0075 0.0405 0 
0.0075 0.0415 0 
0.0075 0.0425 0 
0.0075 0.0435 0 
0.0075 0.0445 0 
0.0075 0.0455 0 
0.0075 0.0465 0 
0.0075 0.0475 0 
0.0075 0.0485 0 
0.0075 0.0495 0 
0.0085 0.0005 0 
0.0085 0.0015 0 
0.0085 0.0025 0 
0.0085 0.0035 0 
0.0085 0.0045 0 
0.0085 0.0055 0 
0.0085 0.0065 0 
0.0085 0.0075 0 
0.0085 0.0085 0 
0.0085 0.0095 0 
0.0085 0.0105 0 
0.0085 0.0115 0 
0.0085 0.0125 0 
0.0085 0.0135 0 
0.0085 0.0145 0 
0.0085 0.0155 0 
0.0085 0.0165 0 
0.0085 0.0175 0 
0.0085 0.0185 0 
0.0085 0.0195 0 
0.0085 0.0205 0 
0.0085 0.0215 0 
0.0085 0.0225 0 
0.0085 0.0235 0 
0.0085 0.0245 0 
0.0085 0.0255 0 
0.0085 0.0265 0 
0.0085 0.0275 0 
0.0085 0.0285 0 
0.0085 0.0295 0 
0.0085 0.0305 0 
0.0085 0.0315 0 
0.0085 0.0325 0 
0.0085 0.0335 0 
0.0085 0.0345 0 
0.0085 0.0355 0 
0.0085 0.0365 0 
0.0085 0.0375 0 
0.0085 0.0385 0 
0.0085 0.0395 0 
0.0085 0.0405 0 
0.0085 0.0415 0 
0.0085 0.0425 0 
0.0085 0.0435 0 
0.0085 0.0445 0 
0.0085 0.0455 0 
0.0085 0.0465 0 
0.0085 0.0475 0 
0.0085 0.0485 0 
0.0085 0.0495 0 
0.0095 0.0005 0 
0.0095 0.0015 0 
0.0095 0.0025 0 
0.0095 0.0035 0 
0.0095 0.0045 0 
0.0095 0.0055 0 
0.0095 0.0065 0 
0.0095 0.0075 0 
0.0095 0.0085 0 
0.0095 0.0095 0 
0.0095 0.0105 0 
0.0095 0.0115 0 
0.0095 0.0125 0 
0.0095 0.0135 0 
0.0095 0.0145 0 
0.0095 0.0155 0 
0.0095 0.0165 0 
0.0095 0.0175 0 
0.0095 0.0185 0 
0.0095 0.0195 0 
0.0095 0.0205 0 
0.0095 0.0215 0 
0.0095 0.0225 0 
0.0095 0.0235 0 
0.0095 0.0245 0 
0.0095 0.0255 0 
0.0095 0.0265 0 
0.0095 0.0275 0 
0.0095 0.0285 0 
0.0095 0.0295 0 
0.0095 0.0305 0 
0.0095 0.0315 0 
0.0095 0.0325 0 
0.0095 0.0335 0 
0.0095 0.0345 0 
0.0095 0.0355 0 
0.0095 0.0365 0 
0.0095 0.0375 0 
0.0095 0.0385 0 
0.0095 0.0395 0 
0.0095 0.0405 0 
0.0095 0.0415 0 
0.0095 0.0425 0 
0.0095 0.0435 0 
0.0095 0.0445 0 
0.0095 0.0455 0 
0.0095 0.0465 0 
0.0095 0.0475 0 
0.0095 0.0485 0 
0.0095 0.0495 0 
0.0105 0.0005 0 
0.0105 0.0015 0 
0.0105 0.0025 0 
0.0105 0.0035 0 
0.0105 0.0045 0 
0.0105 0.0055 0 
0.0105 0.0065 0 
0.0105 0.0075 0 
0.0105 0.0085 0 
0.0105 0.0095 0 
0.0105 0.0105 0 
0.0105 0.0115 0 
0.0105 0.0125 0 
0.0105 0.0135 0 
0.0105 0.0145 0 
0.0105 0.0155 0 
0.0105 0.0165 0 
0.0105 0.0175 0 
0.0105 0.0185 0 
0.0105 0.0195 0 
0.0105 0.0205 0 
0.0105 0.0215 0 
0.0105 0.0225 0 
0.0105 0.0235 0 
0.0105 0.0245 0 
0.0105 0.0255 0 
0.0105 0.0265 0 
0.0105 0.0275 0 
0.0105 0.0285 0 
0.0105 0.0295 0 
0.0105 0.0305 0 
0.0105 0.0315 0 
0.0105 0.0325 0 
0.0105 0.0335 0 
0.0105 0.0345 0 
0.0105 0.0355 0 
0.0105 0.0365 0 
0.0105 0.0375 0 
0.0105 0.0385 0 
0.0105 0.0395 0 
0.0105 0.0405 0 
0.0105 0.0415 0 
0.0105 0.0425 0 
0.0105 0.0435 0 
0.0105 0.0445 0 
0.0105 0.0455 0 
0.0105 0.0465 0 
0.0105 0.0475 0 
0.0105 0.0485 0 
0.0105 0.0495 0 
0.0115 0.0005 0 
0.0115 0.0015 0 
0.0115 0.0025 0 
0.0115 0.0035 0 
0.0115 0.0045 0 
0.0115 0.0055 0 
0.0115 0.0065 0 
0.0115 0.0075 0 
0.0115 0.0085 0 
0.0115 0.0095 0 
0.0115 0.0105 0 
0.0115 0.0115 0 
0.0115 0.0125 0 
0.0115 0.0135 0 
0.0115 0.0145 0 
0.0115 0.0155 0 
0.0115 0.0165 0 
0.0115 0.0175 0 
0.0115 0.0185 0 
0.0115 0.0195 0 
0.0115 0.0205 0 
0.0115 0.0215 0 
0.0115 0.0225 0 
0.0115 0.0235 0 
0.0115 0.0245 0 
0.0115 0.0255 0 
0.0115 0.0265 0 
0.0115 0.0275 0 
0.0115 0.0285 0 
0.0115 0.0295 0 
0.0115 0.0305 0 
0.0115 0.0315 0 
[...]
CELL_DATA 	4851
POINT_DATA 	5000
SCALARS density double 
LOOKUP_TABLE default 
1.2 1.212 1.224 1.236 1.248 1.26 1.272 1.284 1.296 1.308 1.32 1.332 1.344 1.356 1.368 1.38 1.392 1.404 1.416 1.428 1.44 1.452 1.464 1.476 1.488 1.5 1.512 1.524 1.536 1.548 1.56 1.572 1.584 1.596 1.608 1.62 1.632 1.644 1.656 1.668 1.68 1.692 1.704 1.716 1.728 1.74 1.752 1.764 1.776 1.788 1.202 1.214 1.226 1.238 1.25 1.262 1.274 1.286 1.298 1.31 1.322 1.334 1.346 1.358 1.37 1.382 1.394 1.406 1.418 1.43 1.442 1.454 1.466 1.478 1.49 1.502 1.514 1.526 1.538 1.55 1.562 1.574 1.586 1.598 1.61 1.622 1.634 1.646 1.658 1.67 1.682 1.694 1.706 1.718 1.73 1.742 1.754 1.766 1.778 1.79 1.204 1.216 1.228 1.24 1.252 1.264 1.276 1.288 1.3 1.312 1.324 1.336 1.348 1.36 1.372 1.384 1.396 1.408 1.42 1.432 1.444 1.456 1.468 1.48 1.492 1.504 1.516 1.528 1.54 1.552 1.564 1.576 1.588 1.6 1.612 1.624 1.636 1.648 1.66 1.672 1.684 1.696 1.708 1.72 1.732 1.744 1.756 1.768 1.78 1.792 1.206 1.218 1.23 1.242 1.254 1.266 1.278 1.29 1.302 1.314 1.326 1.338 1.35 1.362 1.374 1.386 1.398 1.41 1.422 1.434 1.446 1.458 1.47 1.482 1.494 1.506 1.518 1.53 1.542 1.554 1.566 1.578 1.59 1.602 1.614 1.626 1.638 1.65 1.662 1.674 1.686 1.698 1.71 1.722 1.734 1.746 1.758 1.77 1.782 1.794 1.208 1.22 1.232 1.244 1.256 1.268 1.28 1.292 1.304 1.316 1.328 1.34 1.352 1.364 1.376 1.388 1.4 1.412 1.424 1.436 1.448 1.46 1.472 1.484 1.496 1.508 1.52 1.532 1.544 1.556 1.568 1.58 1.592 1.604 1.616 1.628 1.64 1.652 1.664 1.676 1.688 1.7 1.712 1.724 1.736 1.748 1.76 1.772 1.784 1.796 1.21 1.222 1.234 1.246 1.258 1.27 1.282 1.294 1.306 1.318 1.33 1.342 1.354 1.366 1.378 1.39 1.402 1.414 1.426 1.438 1.45 1.462 1.474 1.486 1.498 1.51 1.522 1.534 1.546 1.558 1.57 1.582 1.594 1.606 1.618 1.63 1.642 1.654 1.666 1.678 1.69 1.702 1.714 1.726 1.738 1.75 1.762 1.774 1.786 1.798 1.212 1.224 1.236 1.248 1.26 1.272 1.284 1.296 1.308 1.32 1.332 1.344 1.356 1.368 1.38 1.392 1.404 1.416 1.428 1.44 1.452 1.464 1.476 1.488 1.5 1.512 1.524 1.536 1.548 1.56 1.572 1.584 1.596 1.608 1.62 1.632 1.644 1.656 1.668 1.68 1.692 1.704 1.716 1.728 1.74 1.752 1.764 1.776 1.788 1.8 1.214 1.226 1.238 1.25 1.262 1.274 1.286 1.298 1.31 1.322 1.334 1.346 1.358 1.37 1.382 1.394 1.406 1.418 1.43 1.442 1.454 1.466 1.478 1.49 1.502 1.514 1.526 1.538 1.55 1.562 1.574 1.586 1.598 1.61 1.622 1.634 1.646 1.658 1.67 1.682 1.694 1.706 1.718 1.73 1.742 1.754 1.766 1.778 1.79 1.802 1.216 1.228 1.24 1.252 1.264 1.276 1.288 1.3 1.312 1.324 1.336 1.348 1.36 1.372 1.384 1.396 1.408 1.42 1.432 1.444 1.456 1.468 1.48 1.492 1.504 1.516 1.528 1.54 1.552 1.564 1.576 1.588 1.6 1.612 1.624 1.636 1.648 1.66 1.672 1.684 1.696 1.708 1.72 1.732 1.744 1.756 1.768 1.78 1.792 1.804 1.218 1.23 1.242 1.254 1.266 1.278 1.29 1.302 1.314 1.326 1.338 1.35 1.362 1.374 1.386 1.398 1.41 1.422 1.434 1.446 1.458 1.47 1.482 1.494 1.506 1.518 1.53 1.542 1.554 1.566 1.578 1.59 1.602 1.614 1.626 1.638 1.65 1.662 1.674 1.686 1.698 1.71 1.722 1.734 1.746 1.758 1.77 1.782 1.794 1.806 1.22 1.232 1.244 1.256 1.268 1.28 1.292 1.304 1.316 1.328 1.34 1.352 1.364 1.376 1.388 1.4 1.412 1.424 1.436 1.448 1.46 1.472 1.484 1.496 1.508 1.52 1.532 1.544 1.556 1.568 1.58 1.592 1.604 1.616 1.628 1.64 1.652 1.664 1.676 1.688 1.7 1.712 1.724 1.736 1.748 1.76 1.772 1.784 1.796 1.808 1.222 1.234 1.246 1.258 1.27 1.282 1.294 1.306 1.318 1.33 1.342 1.354 1.366 1.378 1.39 1.402 1.414 1.426 1.438 1.45 1.462 1.474 1.486 1.498 1.51 1.522 1.534 1.546 1.558 1.57 1.582 1.594 1.606 1.618 1.63 1.642 1.654 1.666 1.678 1.69 1.702 1.714 1.726 1.738 1.75 1.762 1.774 1.786 1.798 1.81 1.224 1.236 1.248 1.26 1.272 1.284 1.296 1.308 1.32 1.332 1.344 1.356 1.368 1.38 1.392 1.404 1.416 1.428 1.44 1.452 1.464 1.476 1.488 1.5 1.512 1.524 1.536 1.548 1.56 1.572 1.584 1.596 1.608 1.62 1.632 1.644 1.656 1.668 1.68 1.692 1.704 1.716 1.728 1.74 1.752 1.764 1.776 1.788 1.8 1.812 1.226 1.238 1.25 1.262 1.274 1.286 1.298 1.31 1.322 1.334 1.346 1.358 1.37 1.382 1.394 1.406 1.418 1.43 1.442 1.454 1.466 1.478 1.49 1.502 1.514 1.526 1.538 1.55 1.562 1.574 1.586 1.598 1.61 1.622 1.634 1.646 1.658 1.67 1.682 1.694 1.706 1.718 1.73 1.742 1.754 1.766 1.778 1.79 1.802 1.814 1.228 1.24 1.252 1.264 1.276 1.288 1.3 1.312 1.324 1.336 1.348 1.36 1.372 1.384 1.396 1.408 1.42 1.432 1.444 1.456 1.468 1.48 1.492 1.504 1.516 1.528 1.54 1.552 1.564 1.576 1.588 1.6 1.612 1.624 1.636 1.648 1.66 1.672 1.684 1.696 1.708 1.72 1.732 1.744 1.756 1.768 1.78 1.792 1.804 1.816 1.23 1.242 1.254 1.266 1.278 1.29 1.302 1.314 1.326 1.338 1.35 1.362 1.374 1.386 1.398 1.41 1.422 1.434 1.446 1.458 1.47 1.482 1.494 1.506 1.518 1.53 1.542 1.554 1.566 1.578 1.59 1.602 1.614 1.626 1.638 1.65 1.662 1.674 1.686 1.698 1.71 1.722 1.734 1.746 1.758 1.77 1.782 1.794 1.806 1.818 1.232 1.244 1.256 1.268 1.28 1.292 1.304 1.316 1.328 1.34 1.352 1.364 1.376 1.388 1.4 1.412 1.424 1.436 1.448 1.46 1.472 1.484 1.496 1.508 1.52 1.532 1.544 1.556 1.568 1.58 1.592 1.604 1.616 1.628 1.64 1.652 1.664 1.676 1.688 1.7 1.712 1.724 1.736 1.748 1.76 1.772 1.784 1.796 1.808 1.82 1.234 1.246 1.258 1.27 1.282 1.294 1.306 1.318 1.33 1.342 1.354 1.366 1.378 1.39 1.402 1.414 1.426 1.438 1.45 1.462 1.474 1.486 1.498 1.51 1.522 1.534 1.546 1.558 1.57 1.582 1.594 1.606 1.618 1.63 1.642 1.654 1.666 1.678 1.69 1.702 1.714 1.726 1.738 1.75 1.762 1.774 1.786 1.798 1.81 1.822 1.236 1.248 1.26 1.272 1.284 1.296 1.308 1.32 1.332 1.344 1.356 1.368 1.38 1.392 1.404 1.416 1.428 1.44 1.452 1.464 1.476 1.488 1.5 1.512 1.524 1.536 1.548 1.56 1.572 1.584 1.596 1.608 1.62 1.632 1.644 1.656 1.668 1.68 1.692 1.704 1.716 1.728 1.74 1.752 1.764 1.776 1.788 1.8 1.812 1.824 1.238 1.25 1.262 1.274 1.286 1.298 1.31 1.322 1.334 1.346 1.358 1.37 1.382 1.394 1.406 1.418 1.43 1.442 1.454 1.466 1.478 1.49 1.502 1.514 1.526 1.538 1.55 1.562 1.574 1.586 1.598 1.61 1.622 1.634 1.646 1.658 1.67 1.682 1.694 1.706 1.718 1.73 1.742 1.754 1.766 1.778 1.79 1.802 1.814 1.826 1.24 1.252 1.264 1.276 1.288 1.3 1.312 1.324 1.336 1.348 1.36 1.372 1.384 1.396 1.408 1.42 1.432 1.444 1.456 1.468 1.48 1.492 1.504 1.516 1.528 1.54 1.552 1.564 1.576 1.588 1.6 1.612 1.624 1.636 1.648 1.66 1.672 1.684 1.696 1.708 1.72 1.732 1.744 1.756 1.768 1.78 1.792 1.804 1.816 1.828 1.242 1.254 1.266 1.278 1.29 1.302 1.314 1.326 1.338 1.35 1.362 1.374 1.386 1.398 1.41 1.422 1.434 1.446 1.458 1.47 1.482 1.494 1.506 1.518 1.53 1.542 1.554 1.566 1.578 1.59 1.602 1.614 1.626 1.638 1.65 1.662 1.674 1.686 1.698 1.71 1.722 1.734 1.746 1.758 1.77 1.782 1.794 1.806 1.818 1.83 1.244 1.256 1.268 1.28 1.292 1.304 1.316 1.328 1.34 1.352 1.364 1.376 1.388 1.4 1.412 1.424 1.436 1.448 1.46 1.472 1.484 1.496 1.508 1.52 1.532 1.544 1.556 1.568 1.58 1.592 1.604 1.616 1.628 1.64 1.652 1.664 1.676 1.688 1.7 1.712 1.724 1.736 1.748 1.76 1.772 1.784 1.796 1.808 1.82 1.832 1.246 1.258 1.27 1.282 1.294 1.306 1.318 1.33 1.342 1.354 1.366 1.378 1.39 1.402 1.414 1.426 1.438 1.45 1.462 1.474 1.486 1.498 1.51 1.522 1.534 1.546 1.558 1.57 1.582 1.594 1.606 1.618 1.63 1.642 1.654 1.666 1.678 1.69 1.702 1.714 1.726 1.738 1.75 1.762 1.774 1.786 1.798 1.81 1.822 1.834 1.248 1.26 1.272 1.284 1.296 1.308 1.32 1.332 1.344 1.356 1.368 1.38 1.392 1.404 1.416 1.428 1.44 1.452 1.464 1.476 1.488 1.5 1.512 1.524 1.536 1.548 1.56 1.572 1.584 1.596 1.608 1.62 1.632 1.644 1.656 1.668 1.68 1.692 1.704 1.716 1.728 1.74 1.752 1.764 1.776 1.788 1.8 1.812 1.824 1.836 1.25 1.262 1.274 1.286 1.298 1.31 1.322 1.334 1.346 1.358 1.37 1.382 1.394 1.406 1.418 1.43 1.442 1.454 1.466 1.478 1.49 1.502 1.514 1.526 1.538 1.55 1.562 1.574 1.586 1.598 1.61 1.622 1.634 1.646 1.658 1.67 1.682 1.694 1.706 1.718 1.73 1.742 1.754 1.766 1.778 1.79 1.802 1.814 1.826 1.838 1.252 1.264 1.276 1.288 1.3 1.312 1.324 1.336 1.348 1.36 1.372 1.384 1.396 1.408 1.42 1.432 1.444 1.456 1.468 1.48 1.492 1.504 1.516 1.528 1.54 1.552 1.564 1.576 1.588 1.6 1.612 1.624 1.636 1.648 1.66 1.672 1.684 1.696 1.708 1.72 1.732 1.744 1.756 1.768 1.78 1.792 1.804 1.816 1.828 1.84 1.254 1.266 1.278 1.29 1.302 1.314 1.326 1.338 1.35 1.362 1.374 1.386 1.398 1.41 1.422 1.434 1.446 1.458 1.47 1.482 1.494 1.506 1.518 1.53 1.542 1.554 1.566 1.578 1.59 1.602 1.614 1.626 1.638 1.65 1.662 1.674 1.686 1.698 1.71 1.722 1.734 1.746 1.758 1.77 1.782 1.794 1.806 1.818 1.83 1.842 1.256 1.268 1.28 1.292 1.304 1.316 1.328 1.34 1.352 1.364 1.376 1.388 1.4 1.412 1.424 1.436 1.448 1.46 1.472 1.484 1.496 1.508 1.52 1.532 1.544 1.556 1.568 1.58 1.592 1.604 1.616 1.628 1.64 1.652 1.664 1.676 1.688 1.7 1.712 1.724 1.736 1.748 1.76 1.772 1.784 1.796 1.808 1.82 1.832 1.844 1.258 1.27 1.282 1.294 1.306 1.318 1.33 1.342 1.354 1.366 1.378 1.39 1.402 1.414 1.426 1.438 1.45 1.462 1.474 1.486 1.498 1.51 1.522 1.534 1.546 1.558 1.57 1.582 1.594 1.606 1.618 1.63 1.642 1.654 1.666 1.678 1.69 1.702 1.714 1.726 1.738 1.75 1.762 1.774 1.786 1.798 1.81 1.822 1.834 1.846 1.26 1.272 1.284 1.296 1.308 1.32 1.332 1.344 1.356 1.368 1.38 1.392 1.404 1.416 1.428 1.44 1.452 1.464 1.476 1.488 1.5 1.512 1.524 1.536 1.548 1.56 1.572 1.584 1.596 1.608 1.62 1.632 1.644 1.656 1.668 1.68 1.692 1.704 1.716 1.728 1.74 1.752 1.764 1.776 1.788 1.8 1.812 1.824 1.836 1.848 1.262 1.274 1.286 1.298 1.31 1.322 1.334 1.346 1.358 1.37 1.382 1.394 1.406 1.418 1.43 1.442 1.454 1.466 1.478 1.49 1.502 1.514 1.526 1.538 1.55 1.562 1.574 1.586 1.598 1.61 1.622 1.634 1.646 1.658 1.67 1.682 1.694 1.706 1.718 1.73 1.742 1.754 1.766 1.778 1.79 1.802 1.814 1.826 1.838 1.85 1.264 1.276 1.288 1.3 1.312 1.324 1.336 1.348 1.36 1.372 1.384 1.396 1.408 1.42 1.432 1.444 1.456 1.468 1.48 1.492 1.504 1.516 1.528 1.54 1.552 1.564 1.576 1.588 1.6 1.612 1.624 1.636 1.648 1.66 1.672 1.684 1.696 1.708 1.72 1.732 1.744 1.756 1.768 1.78 1.792 1.804 1.816 1.828 1.84 1.852 1.266 1.278 1.29 1.302 1.314 1.326 1.338 1.35 1.362 1.374 1.386 1.398 1.41 1.422 1.434 1.446 1.458 1.47 1.482 1.494 1.506 1.518 1.53 1.542 1.554 1.566 1.578 1.59 1.602 1.614 1.626 1.638 1.65 1.662 1.674 1.686 1.698 1.71 1.722 1.734 1.746 1.758 1.77 1.782 1.794 1.806 1.818 1.83 1.842 1.854 1.268 1.28 1.292 1.304 1.316 1.328 1.34 1.352 1.364 1.376 1.388 1.4 1.412 1.424 1.436 1.448 1.46 1.472 1.484 1.496 1.508 1.52 1.532 1.544 1.556 1.568 1.58 1.592 1.604 1.616 1.628 1.64 1.652 1.664 1.676 1.688 1.7 1.712 1.724 1.736 1.748 1.76 1.772 1.784 1.796 1.808 1.82 1.832 1.844 1.856 1.27 1.282 1.294 1.306 1.318 1.33 1.342 1.354 1.366 1.378 1.39 1.402 1.414 1.426 1.438 1.45 1.462 1.474 1.486 1.498 1.51 1.522 1.534 1.546 1.558 1.57 1.582 1.594 1.606 1.618 1.63 1.642 1.654 1.666 1.678 1.69 1.702 1.714 1.726 1.738 1.75 1.762 1.774 1.786 1.798 1.81 1.822 1.834 1.846 1.858 1.272 1.284 1.296 1.308 1.32 1.332 1.344 1.356 1.368 1.38 1.392 1.404 1.416 1.428 1.44 1.452 1.464 1.476 1.488 1.5 1.512 1.524 1.536 1.548 1.56 1.572 1.584 1.596 1.608 1.62 1.632 1.644 1.656 1.668 1.68 1.692 1.704 1.716 1.728 1.74 1.752 1.764 1.776 1.788 1.8 1.812 1.824 1.836 1.848 1.86 1.274 1.286 1.298 1.31 1.322 1.334 1.346 1.358 1.37 1.382 1.394 1.406 1.418 1.43 1.442 1.454 1.466 1.478 1.49 1.502 1.514 1.526 1.538 1.55 1.562 1.574 1.586 1.598 1.61 1.622 1.634 1.646 1.658 1.67 1.682 1.694 1.706 1.718 1.73 1.742 1.754 1.766 1.778 1.79 1.802 1.814 1.826 1.838 1.85 1.862 1.276 1.288 1.3 1.312 1.324 1.336 1.348 1.36 1.372 1.384 1.396 1.408 1.42 1.432 1.444 1.456 1.468 1.48 1.492 1.504 1.516 1.528 1.54 1.552 1.564 1.576 1.588 1.6 1.612 1.624 1.636 1.648 1.66 1.672 1.684 1.696 1.708 1.72 1.732 1.744 1.756 1.768 1.78 1.792 1.804 1.816 1.828 1.84 1.852 1.864 1.278 1.29 1.302 1.314 1.326 1.338 1.35 1.362 1.374 1.386 1.398 1.41 1.422 1.434 1.446 1.458 1.47 1.482 1.494 1.506 1.518 1.53 1.542 1.554 1.566 1.578 1.59 1.602 1.614 1.626 1.638 1.65 1.662 1.674 1.686 1.698 1.71 1.722 1.734 1.746 1.758 1.77 1.782 1.794 1.806 1.818 1.83 1.842 1.854 1.866 1.28 1.292 1.304 1.316 1.328 1.34 1.352 1.364 1.376 1.388 1.4 1.412 1.424 1.436 1.448 1.46 1.472 1.484 1.496 1.508 1.52 1.532 1.544 1.556 1.568 1.58 1.592 1.604 1.616 1.628 1.64 1.652 1.664 1.676 1.688 1.7 1.712 1.724 1.736 1.748 1.76 1.772 1.784 1.796 1.808 1.82 1.832 1.844 1.856 1.868 1.282 1.294 1.306 1.318 1.33 1.342 1.354 1.366 1.378 1.39 1.402 1.414 1.426 1.438 1.45 1.462 1.474 1.486 1.498 1.51 1.522 1.534 1.546 1.558 1.57 1.582 1.594 1.606 1.618 1.63 1.642 1.654 1.666 1.678 1.69 1.702 1.714 1.726 1.738 1.75 1.762 1.774 1.786 1.798 1.81 1.822 1.834 1.846 1.858 1.87 1.284 1.296 1.308 1.32 1.332 1.344 1.356 1.368 1.38 1.392 1.404 1.416 1.428 1.44 1.452 1.464 1.476 1.488 1.5 1.512 1.524 1.536 1.548 1.56 1.572 1.584 1.596 1.608 1.62 1.632 1.644 1.656 1.668 1.68 1.692 1.704 1.716 1.728 1.74 1.752 1.764 1.776 1.788 1.8 1.812 1.824 1.836 1.848 1.86 1.872 1.286 1.298 1.31 1.322 1.334 1.346 1.358 1.37 1.382 1.394 1.406 1.418 1.43 1.442 1.454 1.466 1.478 1.49 1.502 1.514 1.526 1.538 1.55 1.562 1.574 1.586 1.598 1.61 1.622 1.634 1.646 1.658 1.67 1.682 1.694 1.706 1.718 1.73 1.742 1.754 1.766 1.778 1.79 1.802 1.814 1.826 1.838 1.85 1.862 1.874 1.288 1.3 1.312 1.324 1.336 1.348 1.36 1.372 1.384 1.396 1.408 1.42 1.432 1.444 1.456 1.468 1.48 1.492 1.504 1.516 1.528 1.54 1.552 1.564 1.576 1.588 1.6 1.612 1.624 1.636 1.648 1.66 1.672 1.684 1.696 1.708 1.72 1.732 1.744 1.756 1.768 1.78 1.792 1.804 1.816 1.828 1.84 1.852 1.864 1.876 1.29 1.302 1.314 1.326 1.338 1.35 1.362 1.374 1.386 1.398 1.41 1.422 1.434 1.446 1.458 1.47 1.482 1.494 1.506 1.518 1.53 1.542 1.554 1.566 1.578 1.59 1.602 1.614 1.626 1.638 1.65 1.662 1.674 1.686 1.698 1.71 1.722 1.734 1.746 1.758 1.77 1.782 1.794 1.806 1.818 1.83 1.842 1.854 1.866 1.878 1.292 1.304 1.316 1.328 1.34 1.352 1.364 1.376 1.388 1.4 1.412 1.424 1.436 1.448 1.46 1.472 1.484 1.496 1.508 1.52 1.532 1.544 1.556 1.568 1.58 1.592 1.604 1.616 1.628 1.64 1.652 1.664 1.676 1.688 1.7 1.712 1.724 1.736 1.748 1.76 1.772 1.784 1.796 1.808 1.82 1.832 1.844 1.856 1.868 1.88 1.294 1.306 1.318 1.33 1.342 1.354 1.366 1.378 1.39 1.402 1.414 1.426 1.438 1.45 1.462 1.474 1.486 1.498 1.51 1.522 1.534 1.546 1.558 1.57 1.582 1.594 1.606 1.618 1.63 1.642 1.654 1.666 1.678 1.69 1.702 1.714 1.726 1.738 1.75 1.762 1.774 1.786 1.798 1.81 1.822 1.834 1.846 1.858 1.87 1.882 1.296 1.308 1.32 1.332 1.344 1.356 1.368 1.38 1.392 1.404 1.416 1.428 1.44 1.452 1.464 1.476 1.488 1.5 1.512 1.524 1.536 1.548 1.56 1.572 1.584 1.596 1.608 1.62 1.632 1.644 1.656 1.668 1.68 1.692 1.704 1.716 1.728 1.74 1.752 1.764 1.776 1.788 1.8 1.812 1.824 1.836 1.848 1.86 1.872 1.884 1.298 1.31 1.322 1.334 1.346 1.358 1.37 1.382 1.394 1.406 1.418 1.43 1.442 1.454 1.466 1.478 1.49 1.502 1.514 1.526 1.538 1.55 1.562 1.574 1.586 1.598 1.61 1.622 1.634 1.646 1.658 1.67 1.682 1.694 1.706 1.718 1.73 1.742 1.754 1.766 1.778 1.79 1.802 1.814 1.826 1.838 1.85 1.862 1.874 1.886 1.3 1.312 1.324 1.336 1.348 1.36 1.372 1.384 1.396 1.408 1.42 1.432 1.444 1.456 1.468 1.48 1.492 1.504 1.516 1.528 1.54 1.552 1.564 1.576 1.588 1.6 1.612 1.624 1.636 1.648 1.66 1.672 1.684 1.696 1.708 1.72 1.732 1.744 1.756 1.768 1.78 1.792 1.804 1.816 1.828 1.84 1.852 1.864 1.876 1.888 1.302 1.314 1.326 1.338 1.35 1.362 1.374 1.386 1.398 1.41 1.422 1.434 1.446 1.458 1.47 1.482 1.494 1.506 1.518 1.53 1.542 1.554 1.566 1.578 1.59 1.602 1.614 1.626 1.638 1.65 1.662 1.674 1.686 1.698 1.71 1.722 1.734 1.746 1.758 1.77 1.782 1.794 1.806 1.818 1.83 1.842 1.854 1.866 1.878 1.89 1.304 1.316 1.328 1.34 1.352 1.364 1.376 1.388 1.4 1.412 1.424 1.436 1.448 1.46 1.472 1.484 1.496 1.508 1.52 1.532 1.544 1.556 1.568 1.58 1.592 1.604 1.616 1.628 1.64 1.652 1.664 1.676 1.688 1.7 1.712 1.724 1.736 1.748 1.76 1.772 1.784 1.796 1.808 1.82 1.832 1.844 1.856 1.868 1.88 1.892 1.306 1.318 1.33 1.342 1.354 1.366 1.378 1.39 1.402 1.414 1.426 1.438 1.45 1.462 1.474 1.486 1.498 1.51 1.522 1.534 1.546 1.558 1.57 1.582 1.594 1.606 1.618 1.63 1.642 1.654 1.666 1.678 1.69 1.702 1.714 1.726 1.738 1.75 1.762 1.774 1.786 1.798 1.81 1.822 1.834 1.846 1.858 1.87 1.882 1.894 1.308 1.32 1.332 1.344 1.356 1.368 1.38 1.392 1.404 1.416 1.428 1.44 1.452 1.464 1.476 1.488 1.5 1.512 1.524 1.536 1.548 1.56 1.572 1.584 1.596 1.608 1.62 1.632 1.644 1.656 1.668 1.68 1.692 1.704 1.716 1.728 1.74 1.752 1.764 1.776 1.788 1.8 1.812 1.824 1.836 1.848 1.86 1.872 1.884 1.896 1.31 1.322 1.334 1.346 1.358 1.37 1.382 1.394 1.406 1.418 1.43 1.442 1.454 1.466 1.478 1.49 1.502 1.514 1.526 1.538 1.55 1.562 1.574 1.586 1.598 1.61 1.622 1.634 1.646 1.658 1.67 1.682 1.694 1.706 1.718 1.73 1.742 1.754 1.766 1.778 1.79 1.802 1.814 1.826 1.838 1.85 1.862 1.874 1.886 1.898 1.312 1.324 1.336 1.348 1.36 1.372 1.384 1.396 1.408 1.42 1.432 1.444 1.456 1.468 1.48 1.492 1.504 1.516 1.528 1.54 1.552 1.564 1.576 1.588 1.6 1.612 1.624 1.636 1.648 1.66 1.672 1.684 1.696 1.708 1.72 1.732 1.744 1.756 1.768 1.78 1.792 1.804 1.816 1.828 1.84 1.852 1.864 1.876 1.888 1.9 1.314 1.326 1.338 1.35 1.362 1.374 1.386 1.398 1.41 1.422 1.434 1.446 1.458 1.47 1.482 1.494 1.506 1.518 1.53 1.542 1.554 1.566 1.578 1.59 1.602 1.614 1.626 1.638 1.65 1.662 1.674 1.686 1.698 1.71 1.722 1.734 1.746 1.758 1.77 1.782 1.794 1.806 1.818 1.83 1.842 1.854 1.866 1.878 1.89 1.902 1.316 1.328 1.34 1.352 1.364 1.376 1.388 1.4 1.412 1.424 1.436 1.448 1.46 1.472 1.484 1.496 1.508 1.52 1.532 1.544 1.556 1.568 1.58 1.592 1.604 1.616 1.628 1.64 1.652 1.664 1.676 1.688 1.7 1.712 1.724 1.736 1.748 1.76 1.772 1.784 1.796 1.808 1.82 1.832 1.844 1.856 1.868 1.88 1.892 1.904 1.318 1.33 1.342 1.354 1.366 1.378 1.39 1.402 1.414 1.426 1.438 1.45 1.462 1.474 1.486 1.498 1.51 1.522 1.534 1.546 1.558 1.57 1.582 1.594 1.606 1.618 1.63 1.642 1.654 1.666 1.678 1.69 1.702 1.714 1.726 1.738 1.75 1.762 1.774 1.786 1.798 1.81 1.822 1.834 1.846 1.858 1.87 1.882 1.894 1.906 1.32 1.332 1.344 1.356 1.368 1.38 1.392 1.404 1.416 1.428 1.44 1.452 1.464 1.476 1.488 1.5 1.512 1.524 1.536 1.548 1.56 1.572 1.584 1.596 1.608 1.62 1.632 1.644 1.656 1.668 1.68 1.692 1.704 1.716 1.728 1.74 1.752 1.764 1.776 1.788 1.8 1.812 1.824 1.836 1.848 1.86 1.872 1.884 1.896 1.908 1.322 1.334 1.346 1.358 1.37 1.382 1.394 1.406 1.418 1.43 1.442 1.454 1.466 1.478 1.49 1.502 1.514 1.526 1.538 1.55 1.562 1.574 1.586 1.598 1.61 1.622 1.634 1.646 1.658 1.67 1.682 1.694 1.706 1.718 1.73 1.742 1.754 1.766 1.778 1.79 1.802 1.814 1.826 1.838 1.85 1.862 1.874 1.886 1.898 1.91 1.324 1.336 1.348 1.36 1.372 1.384 1.396 1.408 1.42 1.432 1.444 1.456 1.468 1.48 1.492 1.504 1.516 1.528 1.54 1.552 1.564 1.576 1.588 1.6 1.612 1.624 1.636 1.648 1.66 1.672 1.684 1.696 1.708 1.72 1.732 1.744 1.756 1.768 1.78 1.792 1.804 1.816 1.828 1.84 1.852 1.864 1.876 1.888 1.9 1.912 1.326 1.338 1.35 1.362 1.374 1.386 1.398 1.41 1.422 1.434 1.446 1.458 1.47 1.482 1.494 1.506 1.518 1.53 1.542 1.554 1.566 1.578 1.59 1.602 1.614 1.626 1.638 1.65 1.662 1.674 1.686 1.698 1.71 1.722 1.734 1.746 1.758 1.77 1.782 1.794 1.806 1.818 1.83 1.842 1.854 1.866 1.878 1.89 1.902 1.914 1.328 1.34 1.352 1.364 1.376 1.388 1.4 1.412 1.424 1.436 1.448 1.46 1.472 1.484 1.496 1.508 1.52 1.532 1.544 1.556 1.568 1.58 1.592 1.604 1.616 1.628 1.64 1.652 1.664 1.676 1.688 1.7 1.712 1.724 1.736 1.748 1.76 1.772 1.784 1.796 1.808 1.82 1.832 1.844 1.856 1.868 1.88 1.892 1.904 1.916 1.33 1.342 1.354 1.366 1.378 1.39 1.402 1.414 1.426 1.438 1.45 1.462 1.474 1.486 1.498 1.51 1.522 1.534 1.546 1.558 1.57 1.582 1.594 1.606 1.618 1.63 1.642 1.654 1.666 1.678 1.69 1.702 1.714 1.726 1.738 1.75 1.762 1.774 1.786 1.798 1.81 1.822 1.834 1.846 1.858 1.87 1.882 1.894 1.906 1.918 1.332 1.344 1.356 1.368 1.38 1.392 1.404 1.416 1.428 1.44 1.452 1.464 1.476 1.488 1.5 1.512 1.524 1.536 1.548 1.56 1.572 1.584 1.596 1.608 1.62 1.632 1.644 1.656 1.668 1.68 1.692 1.704 1.716 1.728 1.74 1.752 1.764 1.776 1.788 1.8 1.812 1.824 1.836 1.848 1.86 1.872 1.884 1.896 1.908 1.92 1.334 1.346 1.358 1.37 1.382 1.394 1.406 1.418 1.43 1.442 1.454 1.466 1.478 1.49 1.502 1.514 1.526 1.538 1.55 1.562 1.574 1.586 1.598 1.61 1.622 1.634 1.646 1.658 1.67 1.682 1.694 1.706 1.718 1.73 1.742 1.754 1.766 1.778 1.79 1.802 1.814 1.826 1.838 1.85 1.862 1.874 1.886 1.898 1.91 1.922 1.336 1.348 1.36 1.372 1.384 1.396 1.408 1.42 1.432 1.444 1.456 1.468 1.48 1.492 1.504 1.516 1.528 1.54 1.552 1.564 1.576 1.588 1.6 1.612 1.624 1.636 1.648 1.66 1.672 1.684 1.696 1.708 1.72 1.732 1.744 1.756 1.768 1.78 1.792 1.804 1.816 1.828 1.84 1.852 1.864 1.876 1.8